                              Psi4 1.0rc45 Driver

  ==> Input File <==

--------------------------------------------------------------------------
#!  H2O

molecule h2o {

O          0.00000       -0.07579        0.00000
H          0.86681        0.60144        0.00000
H         -0.86681        0.60144        0.00000

units bohr
}

set {
  reference rhf
  basis cc-pvdz
  freeze_core false
}

thisenergy = energy('mp2')

--------------------------------------------------------------------------

    Molecular point group: c2v

    Geometry (in Bohr), charge = 0, multiplicity = 1:

       Center              X                  Y                   Z               Mass
    ------------   -----------------  -----------------  -----------------  -----------------
           O          0.000000000000     0.000000000000    -0.075792109626    15.994914619560
           H          0.866810000000     0.000000000000     0.601437890374     1.007825032070
           H         -0.866810000000    -0.000000000000     0.601437890374     1.007825032070

  Charge       = 0
  Multiplicity = 1
  Basis Set: CC-PVDZ
  Basis Set:

    Orbital Energies (a.u.)
    -----------------------

    Doubly Occupied:

       1A1   -20.493848     2A1    -1.630120     1B1    -0.957163
       3A1    -0.640229     1B2    -0.543865

  @DF-RHF Final Energy:   -75.24148930160929

   => Energetics <=

    Nuclear Repulsion Energy =             15.1222819294384774
    One-Electron Energy =                -132.1970923621277620
    Two-Electron Energy =                  41.8333211310799982
    DFT Exchange-Correlation Energy =       0.0000000000000000
    Empirical Dispersion Energy =           0.0000000000000000
    PCM Polarization Energy =               0.0000000000000000
    EFP Energy =                            0.0000000000000000
    Total Energy =                        -75.2414893016092918
  Basis Set:
	 Reference Energy          =     -75.2414893016092918 [Eh]
	 Singles Energy            =      -0.0000000000000000 [Eh]
	 Same-Spin Energy          =      -0.0468487150637903 [Eh]
	 Opposite-Spin Energy      =      -0.1311571114251749 [Eh]
	 Correlation Energy        =      -0.1780058264889653 [Eh]
	 Total Energy              =     -75.4194951280982622 [Eh]

	 ================> DF-SCS-MP2 Energies <==================
	-----------------------------------------------------------
	 SCS Same-Spin Scale       =       0.3333333333333333 [-]
	 SCS Opposite-Spin Scale   =       1.2000000000000000 [-]
	 SCS Same-Spin Energy      =      -0.0156162383545968 [Eh]
	 SCS Opposite-Spin Energy  =      -0.1573885337102099 [Eh]
	 SCS Correlation Energy    =      -0.1730047720648067 [Eh]
	 SCS Total Energy          =     -75.4144940736740921 [Eh]
	-----------------------------------------------------------

*** Psi4 exiting successfully. Buy a developer a beer!
