                              Psi4 1.0rc45 Driver

  ==> Input File <==

--------------------------------------------------------------------------
#!  H2O

molecule h2o {

O          0.00000       -0.07579        0.00000
H          0.86681        0.60144        0.00000
H         -0.86681        0.60144        0.00000

units bohr
}

set {
  reference rhf
  basis sto-3g
  freeze_core false
}

thisenergy = energy('mp2')

--------------------------------------------------------------------------

    Molecular point group: c2v

    Geometry (in Bohr), charge = 0, multiplicity = 1:

       Center              X                  Y                   Z               Mass
    ------------   -----------------  -----------------  -----------------  -----------------
           O          0.000000000000     0.000000000000    -0.075792109626    15.994914619560
           H          0.866810000000     0.000000000000     0.601437890374     1.007825032070
           H         -0.866810000000    -0.000000000000     0.601437890374     1.007825032070

  Charge       = 0
  Multiplicity = 1
  Basis Set: STO-3G
  Basis Set:

    Orbital Energies (a.u.)
    -----------------------

    Doubly Occupied:

       1A1   -20.340936     2A1    -1.592193     1B1    -0.874677
       3A1    -0.541672     1B2    -0.495109

  @DF-RHF Final Energy:   -73.99577001505391

   => Energetics <=

    Nuclear Repulsion Energy =             15.1222819294384774
    One-Electron Energy =                -130.5469313692831292
    Two-Electron Energy =                  41.4288794247907646
    DFT Exchange-Correlation Energy =       0.0000000000000000
    Empirical Dispersion Energy =           0.0000000000000000
    PCM Polarization Energy =               0.0000000000000000
    EFP Energy =                            0.0000000000000000
    Total Energy =                        -73.9957700150538926
  Basis Set:
	 Reference Energy          =     -73.9957700150539068 [Eh]
	 Singles Energy            =      -0.0000000000000000 [Eh]
	 Same-Spin Energy          =      -0.0006359704162983 [Eh]
	 Opposite-Spin Energy      =      -0.0134418930863271 [Eh]
	 Correlation Energy        =      -0.0140778635026254 [Eh]
	 Total Energy              =     -74.0098478785565277 [Eh]

	 ================> DF-SCS-MP2 Energies <==================
	-----------------------------------------------------------
	 SCS Same-Spin Scale       =       0.3333333333333333 [-]
	 SCS Opposite-Spin Scale   =       1.2000000000000000 [-]
	 SCS Same-Spin Energy      =      -0.0002119901387661 [Eh]
	 SCS Opposite-Spin Energy  =      -0.0161302717035925 [Eh]
	 SCS Correlation Energy    =      -0.0163422618423586 [Eh]
	 SCS Total Energy          =     -74.0121122768962607 [Eh]
	-----------------------------------------------------------

*** Psi4 exiting successfully. Buy a developer a beer!
